3
Properties=species:S:1:pos:R:3:gradient_habohr:R:3 energy_ha=-76.42273727379157 label=H2O-geop basis=ccpvtz xc=b3lyp pbc="F F F"
H       -0.00000000       0.78767962      -0.49263261       0.00000000       0.00000475      -0.00000083
H        0.00000000      -0.73255853      -0.44964962      -0.00000000      -0.00000460      -0.00000043
O       -0.00000000       0.04419528       0.11720749       0.00000000       0.00000021       0.00000170
12
Properties=species:S:1:pos:R:3:gradient_habohr:R:3 energy_ha=-305.74405844429276 label=4H2O-Walesi-geop basis=ccpvtz xc=b3lyp pbc="F F F"
O        0.22293665      -1.91728718       0.00610735      -0.00000322       0.00000343      -0.00000675
H       -0.61942071      -1.40793607      -0.02753647       0.00000387      -0.00000395       0.00000119
H        0.17028840      -2.45079785       0.80379089      -0.00000119      -0.00000086       0.00000376
H        1.40793440      -0.61940996       0.02753566       0.00000330       0.00000357      -0.00000089
O        1.91728996       0.22294499      -0.00611150      -0.00000269      -0.00000251       0.00000631
H        2.45080208       0.17029188      -0.80379354       0.00000099      -0.00000110      -0.00000370
O       -1.91728968      -0.22294173      -0.00611046       0.00000352       0.00000289       0.00000692
H       -2.45080482      -0.17028919      -0.80379071      -0.00000091       0.00000124      -0.00000388
H       -1.40793721       0.61941469       0.02753434      -0.00000362      -0.00000386      -0.00000136
O       -0.22294631       1.91728835       0.00611764       0.00000264      -0.00000304      -0.00000663
H       -0.17029256       2.45079735       0.80380186       0.00000120       0.00000093       0.00000377
H        0.61940788       1.40793173      -0.02752956      -0.00000389       0.00000325       0.00000127
12
Properties=species:S:1:pos:R:3:gradient_habohr:R:3 energy_ha=-305.7246663936868 label=HOH+_copt basis=ccpvtz xc=b3lyp pbc="F F F"
H        0.27173678       0.56594310       1.31496352       0.00000932      -0.01241803       0.00536406
O        0.00000000       1.50346939       1.09146262      -0.00466647       0.00001510      -0.00001942
H        0.78217037       1.98594235       0.79084807      -0.00000610       0.00333775      -0.00839853
H       -0.27173678       1.31496352      -0.56594310      -0.00000932       0.00536406       0.01241803
O        0.00000000       1.09146262      -1.50346939       0.00466647      -0.00001942      -0.00001510
H       -0.78217037       0.79084807      -1.98594235       0.00000610      -0.00839853      -0.00333775
H        0.27173678      -0.56594310      -1.31496352       0.00000932       0.01241803      -0.00536406
O        0.00000000      -1.50346939      -1.09146262      -0.00466647      -0.00001510       0.00001942
H        0.78217037      -1.98594235      -0.79084807      -0.00000610      -0.00333775       0.00839853
H       -0.27173678      -1.31496352       0.56594310      -0.00000932      -0.00536406      -0.01241803
O        0.00000000      -1.09146262       1.50346939       0.00466647       0.00001942       0.00001510
H       -0.78217037      -0.79084807       1.98594235       0.00000610       0.00839853       0.00333775
12
Properties=species:S:1:pos:R:3:gradient_habohr:R:3 energy_ha=-305.6017021077743 label=HOH-_copt basis=ccpvtz xc=b3lyp pbc="F F F"
H       -0.27173678       0.56594310       1.31496352      -0.05213244      -0.01537912       0.01483291
O        0.00000000       1.50346939       1.09146262       0.03199858      -0.03139146       0.00134350
H        0.78217037       1.98594235       0.79084807      -0.00453105       0.02596245      -0.02234059
H        0.27173678       1.31496352      -0.56594310       0.05213244       0.01483291       0.01537912
O        0.00000000       1.09146262      -1.50346939      -0.03199858       0.00134350       0.03139146
H       -0.78217037       0.79084807      -1.98594235       0.00453105      -0.02234059      -0.02596245
H       -0.27173678      -0.56594310      -1.31496352      -0.05213244       0.01537912      -0.01483291
O        0.00000000      -1.50346939      -1.09146262       0.03199858       0.03139146      -0.00134350
H        0.78217037      -1.98594235      -0.79084807      -0.00453105      -0.02596245       0.02234059
H        0.27173678      -1.31496352       0.56594310       0.05213244      -0.01483291      -0.01537912
O        0.00000000      -1.09146262       1.50346939      -0.03199858      -0.00134350      -0.03139146
H       -0.78217037      -0.79084807       1.98594235       0.00453105       0.02234059       0.02596245
12
Properties=species:S:1:pos:R:3:gradient_habohr:R:3 energy_ha=-305.67672612588956 label=OHH+_copt basis=ccpvtz xc=b3lyp pbc="F F F"
O        0.92483369       0.56897124       1.24814251      -0.00010299      -0.02147943       0.00962627
H        0.00000000       0.89708990       1.33525116      -0.02321336      -0.00009385       0.00002975
H        1.14401287       0.91540917       0.34214677       0.00000747       0.01176900      -0.03103776
O       -0.92483369       1.24814251      -0.56897124       0.00010299       0.00962627       0.02147943
H        0.00000000       1.33525116      -0.89708990       0.02321336       0.00002975       0.00009385
H       -1.14401287       0.34214677      -0.91540917      -0.00000747      -0.03103776      -0.01176900
O        0.92483369      -0.56897124      -1.24814251      -0.00010299       0.02147943      -0.00962627
H        0.00000000      -0.89708990      -1.33525116      -0.02321336       0.00009385      -0.00002975
H        1.14401287      -0.91540917      -0.34214677       0.00000747      -0.01176900       0.03103776
O       -0.92483369      -1.24814251       0.56897124       0.00010299      -0.00962627      -0.02147943
H        0.00000000      -1.33525116       0.89708990       0.02321336      -0.00002975      -0.00009385
H       -1.14401287      -0.34214677       0.91540917      -0.00000747       0.03103776       0.01176900
12
Properties=species:S:1:pos:R:3:gradient_habohr:R:3 energy_ha=-305.61490767371663 label=OHH-_copt basis=ccpvtz xc=b3lyp pbc="F F F"
O       -0.92483369       0.56897124       1.24814251       0.02874228      -0.00922203      -0.01471200
H        0.00000000       0.89708990       1.33525116       0.03094081       0.03112231       0.00141101
H        1.14401287       0.91540917       0.34214677       0.02097774      -0.00948665       0.03703818
O        0.92483369       1.24814251      -0.56897124      -0.02874228      -0.01471200       0.00922203
H        0.00000000       1.33525116      -0.89708990      -0.03094081       0.00141101      -0.03112231
H       -1.14401287       0.34214677      -0.91540917      -0.02097774       0.03703818       0.00948665
O       -0.92483369      -0.56897124      -1.24814251       0.02874228       0.00922203       0.01471200
H        0.00000000      -0.89708990      -1.33525116       0.03094081      -0.03112231      -0.00141101
H        1.14401287      -0.91540917      -0.34214677       0.02097774       0.00948665      -0.03703818
O        0.92483369      -1.24814251       0.56897124      -0.02874228       0.01471200      -0.00922203
H        0.00000000      -1.33525116       0.89708990      -0.03094081      -0.00141101       0.03112231
H       -1.14401287      -0.34214677       0.91540917      -0.02097774      -0.03703818      -0.00948665
