12
Properties=species:S:1:pos:R:3:gradient_b3lyp_habohr:R:3 energy_b3lyp_ha=-305.6681219345063 label=0 basis=ccpvtz xc=b3lyp pbc="F F F"
O       -1.99016000      -1.80169000      -1.28848000       0.11378895       0.11701848      -0.03113516
H       -1.39029000      -2.18993000      -0.69668800      -0.01792251       0.02619735      -0.02647892
H       -1.51115000      -1.14484000      -1.53007000      -0.09031197      -0.13881966       0.05904393
O        1.90521000       1.90868000       0.22151300       0.00102626      -0.02764330       0.02716865
H        1.00643000       1.70887000       0.40005900       0.03481016      -0.00810617       0.00359063
H        2.23535000       1.28095000       0.80509000      -0.03805322       0.03368467      -0.03107020
O       -0.15431800       0.22977100       1.92400000      -0.06248208       0.07334989       0.04624718
H        0.42419500       0.11501900       2.65761000      -0.01117650       0.00241951      -0.01660678
H       -0.74107200       0.85240800       2.12255000       0.07584905      -0.07857574      -0.02970423
O        0.16389400      -0.34043200      -0.97902000      -0.04124473      -0.05469642      -0.02988324
H       -0.05067430       0.06476370      -0.05150500      -0.01158828       0.02664616       0.04467713
H        1.01534000       0.18804600      -1.25926000       0.04730532       0.02852430      -0.01584864
12
Properties=species:S:1:pos:R:3:gradient_b3lyp_habohr:R:3 energy_b3lyp_ha=-305.55633597081885 label=1 basis=ccpvtz xc=b3lyp pbc="F F F"
O       -1.51925000      -0.00245864       0.41330000       0.07624313      -0.05995586       0.04850951
H       -1.09004000       0.71308000      -0.17716500       0.05788217       0.03844526      -0.02103822
H       -0.83637900      -0.46720400       0.78080700      -0.04299720       0.02493008      -0.05702438
O        0.38106200       1.44275000      -0.32585400      -0.07535781      -0.07495871       0.13097434
H       -0.09527350       1.12758000       0.33138100       0.05748195       0.01597279      -0.10158869
H        0.28938000       0.78092500      -1.06906000      -0.00021918      -0.03329580      -0.00790030
O        0.17149100      -0.99107200      -1.14368000       0.01753317       0.05227772       0.07242135
H        0.78898700      -0.44787900      -0.74875600      -0.05539107      -0.01345677      -0.00050003
H       -0.58051000      -0.92203100      -0.56312100       0.03086482       0.00665303       0.01651238
O        0.95942700      -0.45458400       1.09938000      -0.01939125       0.04472790      -0.06461056
H        0.56502800      -0.99173600       0.42323000      -0.01914818       0.02801105      -0.01685566
H        0.97943500       0.39249000       0.72379100      -0.02750074      -0.02935640       0.00110267
12
Properties=species:S:1:pos:R:3:gradient_b3lyp_habohr:R:3 energy_b3lyp_ha=-305.601138527863 label=2 basis=ccpvtz xc=b3lyp pbc="F F F"
O        1.60262000       0.04505300       0.60068000      -0.20644233       0.13623491       0.03673482
H        0.90191500       0.48368600       0.72486700       0.17526807      -0.08756661      -0.03494824
H        1.57323000      -0.90189900       0.24925900       0.00048601      -0.05133531      -0.01387304
O       -0.04404770       0.68124300      -1.56565000      -0.05752959      -0.09060781      -0.04544687
H        0.31706600      -0.11717900      -1.23605000      -0.00939137       0.03578591       0.00447020
H        0.71378600       1.32912000      -0.95896500       0.06374204       0.04610924       0.06246436
O       -0.59059500      -1.51507000      -0.06207240      -0.00477371       0.03656620       0.00470623
H       -1.19751000      -0.82778700      -0.37697400      -0.01213129       0.00883277      -0.01165444
H        0.13434500      -1.23604000       0.53532500       0.03499005      -0.00355150       0.01032323
O       -0.98469700       0.75936000       1.01371000      -0.00194589      -0.15360944       0.02393814
H       -1.04803000       0.03054200       1.46650000       0.01459796       0.12127557      -0.06449559
H       -0.83067700       0.68440500       0.09256220       0.00312985       0.00186529       0.02778141
12
Properties=species:S:1:pos:R:3:gradient_b3lyp_habohr:R:3 energy_b3lyp_ha=-305.53624327490155 label=3 basis=ccpvtz xc=b3lyp pbc="F F F"
O       -0.63578600      -1.63404000      -0.42795100       0.10455169      -0.00864324      -0.07585875
H        0.20061400      -1.80722000      -0.70358600      -0.08150269       0.01368980       0.01319753
H       -0.76053200      -1.42401000       0.59266700      -0.01452613       0.02341072       0.06146883
O        0.04374980       0.20388700       1.56885000       0.04007525      -0.05098245      -0.03197198
H        0.41761500      -0.64032600       1.37429000      -0.01131434       0.00608602       0.01129408
H       -0.30966000       0.86846400       0.81940400       0.01073765       0.04890417      -0.07912773
O        1.59449000       0.62350400      -0.36979800       0.06061218       0.00257650      -0.01858265
H        0.91535300       0.87934200      -1.02084000      -0.03684032      -0.00273167       0.02905708
H        0.77001600       0.49902000       0.31219600      -0.11779500       0.00359593       0.02145683
O       -0.96558500       0.81191000      -0.76099000       0.17894673       0.04032555       0.10600588
H       -1.05381000      -0.24871000      -0.69953700       0.00254478      -0.04393349       0.01837214
H       -0.27825600       0.86221300      -0.28441300      -0.13548973      -0.03229719      -0.05531059
12
Properties=species:S:1:pos:R:3:gradient_b3lyp_habohr:R:3 energy_b3lyp_ha=-305.65151866890415 label=4 basis=ccpvtz xc=b3lyp pbc="F F F"
O        0.97764100       1.29244000       0.96247100       0.03538973      -0.02598327       0.05449137
H        0.26237500       1.28445000       0.11809700      -0.03470447      -0.04717978      -0.05122281
H        0.77784800       0.39497500       0.91309000      -0.01299359       0.05932725      -0.02823151
O       -0.57307700      -1.58804000       0.96477200       0.05343793      -0.03337925      -0.03123734
H       -0.52212700      -1.07944000       1.81313000      -0.01132376       0.01566158       0.00936175
H       -1.36216000      -1.07602000       0.60030000      -0.01853397       0.02541655      -0.00661619
O        0.52884700      -0.88580100      -1.09369000       0.02718634       0.02485639      -0.03257748
H        0.16246400      -1.21833000      -0.12311700      -0.02803651      -0.00470351       0.05340301
H        1.32332000      -0.45576200      -0.82008600      -0.02410617      -0.01218719       0.00359160
O       -0.82165400       1.26763000      -0.83918900       0.05655423       0.03404877       0.01759915
H       -1.81673000       1.10670000      -0.90455600      -0.03454747      -0.01855391      -0.00565105
H       -0.49608900       0.30998100      -0.97972900      -0.00832227      -0.01732377       0.01708926
12
Properties=species:S:1:pos:R:3:gradient_b3lyp_habohr:R:3 energy_b3lyp_ha=-305.58985066155833 label=5 basis=ccpvtz xc=b3lyp pbc="F F F"
O       -0.00100342      -1.36448000       0.93751900      -0.04106629       0.14922859       0.03232092
H        0.39671500      -1.56555000       0.00888442       0.02202008       0.00650100      -0.05229298
H       -0.08089370      -0.49559900       0.89875100       0.02188850      -0.12010136      -0.01756523
O        1.42769000       0.18445500      -0.57235700      -0.02353712      -0.04077454       0.01347426
H        1.47788000      -0.19339800       0.31657800      -0.00646273      -0.00410508       0.00115817
H        0.79385900       0.97399100      -0.52447400      -0.04410342      -0.00266358      -0.01644092
O       -0.86896600      -0.21860900      -1.14575000       0.00521366      -0.00028366      -0.01413188
H        0.19478300       0.01189880      -1.04706000       0.05833363       0.05446720       0.02405733
H       -1.12270000      -0.72311200      -0.29887900      -0.00391798      -0.00015340       0.04625768
O       -0.61513000       1.30936000       0.78769800       0.03559087       0.00561948       0.03037937
H       -0.88389600       0.70668900      -0.14161200      -0.00540953      -0.04061285      -0.03280062
H        0.28602900       1.22090000       1.02904000      -0.01855043      -0.00712273      -0.01441503
12
Properties=species:S:1:pos:R:3:gradient_b3lyp_habohr:R:3 energy_b3lyp_ha=-305.6531059690724 label=6 basis=ccpvtz xc=b3lyp pbc="F F F"
O       -1.03446000       0.53029500       1.17717000       0.04458959       0.00839783      -0.08721653
H       -0.81289100       0.36602700       0.32608800       0.00459365       0.00140759       0.09008717
H       -1.55139000      -0.29961900       1.32726000      -0.00726019      -0.01975571      -0.00698816
O       -0.01941200       1.00317000      -1.42941000       0.00417574      -0.05010981       0.03102531
H       -0.29891000       1.74100000      -0.86662800      -0.00652656       0.01019909       0.00324011
H        0.09011150       0.20194000      -0.96287300      -0.00093806       0.00447938      -0.00542880
O        1.45342000      -0.10786900       0.81262800       0.02940454      -0.00244118       0.05780889
H        1.78604000      -0.13377500       1.66945000      -0.01045233       0.00227937      -0.04540286
H        0.47031200       0.12426800       0.83206200      -0.04832114      -0.00574519      -0.03925495
O       -0.45167700      -1.37286000      -0.59462600       0.00111682       0.00825032      -0.04116599
H       -0.22915900      -1.38150000      -1.49267000      -0.00467560       0.00921535       0.04422856
H        0.35520900      -1.02565000      -0.15258400      -0.00570719       0.03382297      -0.00093387
12
Properties=species:S:1:pos:R:3:gradient_b3lyp_habohr:R:3 energy_b3lyp_ha=-305.6312575141528 label=7 basis=ccpvtz xc=b3lyp pbc="F F F"
O       -1.57067000       0.75026200       0.75261200       0.14433548      -0.08456782      -0.00993203
H       -1.08463000       1.43950000       0.39895300      -0.01757680      -0.05496763       0.01653145
H       -0.96562300       0.15848200       0.73994700      -0.11446019       0.12708901      -0.01257953
O       -0.19451800      -1.60781000      -0.31709200      -0.00458690       0.04989513       0.00429344
H       -0.52266900      -0.87501100      -0.80208800       0.03103458      -0.00721819      -0.00681513
H       -0.13507800      -1.37794000       0.60870100       0.00099255      -0.00374717      -0.00168561
O        0.66952700       0.58110500      -1.46442000       0.01995120      -0.10603845       0.02538869
H        0.50436400      -0.30661700      -1.37335000      -0.00196033       0.05801284       0.00323451
H       -0.21113100       1.06643000      -1.60993000      -0.03894413       0.02549229      -0.00145534
O        1.06461000       0.15310800       1.11093000       0.02036946       0.05705283      -0.12140998
H        1.09023000       0.83597800       0.57716600       0.00094507      -0.11424788       0.07556908
H        1.53991000      -0.42609000       0.60225200      -0.04010022       0.05324524       0.02886090
12
Properties=species:S:1:pos:R:3:gradient_b3lyp_habohr:R:3 energy_b3lyp_ha=-305.63901421818485 label=8 basis=ccpvtz xc=b3lyp pbc="F F F"
O        1.41224000       1.92341000      -0.62921600      -0.02861590      -0.02962894      -0.03094915
H        1.69972000       2.87670000      -0.81758500       0.02777935       0.05007789       0.01073176
H        0.87694800       1.39460000      -1.21032000       0.00096245      -0.01792816       0.02247303
O        0.25402500       0.07942210       2.92263000      -0.01402999       0.03321623      -0.04249059
H        0.57141800      -0.53719200       3.69021000       0.01668641      -0.03277042       0.04326484
H        0.65017300      -0.30016400       2.13335000      -0.00384553      -0.00175766      -0.00089820
O       -1.80539000       0.37158400      -1.77207000      -0.05663122      -0.05099590      -0.04971326
H       -1.07083000       0.69782200      -1.01719000       0.06322444       0.03476809       0.05689799
H       -1.91241000      -0.56715300      -1.69059000      -0.00741442       0.01579851      -0.00981024
O       -0.02670030      -2.25257000      -0.54625300      -0.03591457      -0.01145508      -0.01462094
H        0.69881800      -2.58871000      -1.24504000       0.03472375      -0.03221737      -0.06335428
H        0.27153300      -1.75586000       0.36906600       0.00307509       0.04289460       0.07846892
12
Properties=species:S:1:pos:R:3:gradient_b3lyp_habohr:R:3 energy_b3lyp_ha=-305.5761406420555 label=9 basis=ccpvtz xc=b3lyp pbc="F F F"
O        0.66402300       0.05312060       1.46191000       0.05464698      -0.00614343       0.03278813
H        0.05583730      -0.11379100       0.57784400      -0.04994227       0.01662817      -0.09081581
H        1.26945000      -0.62591900       1.30654000      -0.03666930       0.03722020      -0.00830393
O        1.04115000      -0.55695800      -1.17506000       0.06887500       0.07023715       0.04877665
H        0.14619000      -0.86134200      -0.73671500      -0.04207896       0.02365765       0.03784412
H        1.35097000      -0.08791570      -0.48222700      -0.06527450      -0.04343830      -0.06115991
O       -1.43386000      -0.88504100      -0.00584319       0.00675616       0.02006964      -0.00790217
H       -1.49961000      -0.55005000       0.88443900       0.01830291       0.02464003      -0.03017438
H       -1.18991000      -0.01184000      -0.28334000       0.02578027      -0.03429772       0.04581234
O       -0.29816300       1.42038000      -0.35829000       0.01359842       0.01845871      -0.01297872
H       -0.29763700       1.06667000       0.56938500       0.00151037      -0.06625120       0.01422811
H        0.14636900       0.59367800      -0.72897300       0.00449472      -0.06078091       0.03188483
12
Properties=species:S:1:pos:R:3:gradient_b3lyp_habohr:R:3 energy_b3lyp_ha=-305.69059893286 label=10 basis=ccpvtz xc=b3lyp pbc="F F F"
O        1.32546000      -1.67260000      -0.45741000       0.01033403      -0.07260887      -0.04274846
H        0.73265000      -0.81117200      -0.45430100      -0.03187382       0.06021560       0.01585990
H        1.13897000      -2.32937000      -1.08714000       0.02082396       0.01272630       0.02856249
O       -1.71560000      -0.34306200       0.42286600      -0.02355270       0.04735699      -0.02091789
H       -1.25791000      -1.19906000       0.79975000       0.02666653      -0.04480048       0.03123777
H       -1.31329000      -0.11196000      -0.44451300       0.00131625       0.00526494      -0.01141796
O       -0.08364620       1.02978000      -1.32627000       0.05500135      -0.00114059      -0.01752997
H        0.44504800       1.35572000      -0.61769900      -0.02037826      -0.00651411      -0.01897059
H        0.39086300       0.76323200      -2.06017000      -0.03617397       0.01010970       0.04011141
O        0.45833700       1.03397000       1.37239000      -0.07213996      -0.02606916       0.00215810
H        0.19050200       1.88795000       1.68633000       0.01811791       0.00036732      -0.00502364
H       -0.18450100       0.38589200       1.24272000       0.05185757       0.01509206      -0.00132056
12
Properties=species:S:1:pos:R:3:gradient_b3lyp_habohr:R:3 energy_b3lyp_ha=-305.6486839210425 label=11 basis=ccpvtz xc=b3lyp pbc="F F F"
O        0.66418600       1.61559000      -0.72097400      -0.01757831      -0.04984456       0.09137977
H        0.11484300       1.34937000      -0.08082430       0.04546099       0.03277849      -0.06771980
H        1.53354000       1.46046000      -0.45613100      -0.03712400       0.01104751      -0.01450576
O        0.82735700      -0.43217300       1.12084000       0.00280869       0.02435965      -0.00101568
H        0.34732900      -1.28775000       1.18121000      -0.01660235      -0.01024976      -0.00779876
H        1.05349000      -0.22854100       2.02739000      -0.00232879      -0.00149710      -0.00940160
O        0.19501000      -1.63497000      -1.50195000       0.06718434      -0.00235976      -0.05864558
H       -0.79072000      -1.52076000      -1.84668000      -0.05888791       0.00563357      -0.02373942
H        0.06772640      -1.63286000      -0.42091200      -0.00658258       0.00057219       0.09401063
O       -1.66764000       0.45778200       0.98243000      -0.00292206      -0.05168256       0.02861262
H       -0.84062100      -0.01388410       0.94762300      -0.00657979       0.00657869      -0.00532067
H       -1.34753000       1.29858000       0.49059000       0.03315258       0.03466412      -0.02585684
12
Properties=species:S:1:pos:R:3:gradient_b3lyp_habohr:R:3 energy_b3lyp_ha=-305.55156912708355 label=12 basis=ccpvtz xc=b3lyp pbc="F F F"
O        1.03225000       0.24581200       1.36940000      -0.02820507      -0.07767528      -0.01413862
H        0.52770600      -0.42754000       1.02030000       0.02804338       0.05663395       0.01096785
H        0.98406800       0.94704600       0.64286200      -0.01983693       0.02318482      -0.03974566
O       -1.38793000       1.03217000       0.12416900       0.06267596       0.06400966      -0.00348165
H       -0.60417900       1.29533000       0.45690500      -0.07526859      -0.06913379      -0.03536180
H       -1.26475000       0.22965900       0.73153300       0.03984673      -0.02382547       0.01527555
O       -0.55136600      -1.64154000      -0.46600700       0.07206174       0.12455206      -0.04088915
H        0.03245310      -1.08238000      -0.76077900      -0.11698999      -0.06087740       0.09185631
H       -0.90277100      -0.92898500      -0.02398720       0.06475843      -0.02224846      -0.03636017
O        0.92380600       0.29099900      -1.09865000       0.13044773      -0.18280037       0.24506562
H        1.24795000      -0.12589200      -0.49803700      -0.12449985       0.14230039      -0.21140200
H        0.05646030       0.76450300      -0.86505100      -0.03303256       0.02588003       0.01821474
12
Properties=species:S:1:pos:R:3:gradient_b3lyp_habohr:R:3 energy_b3lyp_ha=-305.636487329951 label=13 basis=ccpvtz xc=b3lyp pbc="F F F"
O        0.11444400      -0.49548400       1.45425000       0.05014940       0.00776894       0.05387278
H       -0.65664600       0.16895800       0.92057600      -0.02062088       0.01190464      -0.06588459
H       -0.17998900      -1.13100000       0.71543700      -0.02023299       0.00235669      -0.04055215
O        1.37776000       0.73223500      -0.29229400       0.01650847      -0.03226869      -0.04361444
H        1.33072000       1.47365000       0.38921000      -0.01812253       0.01583948       0.03056948
H        0.87760000       0.06802970       0.37208500      -0.03379683      -0.00877758      -0.00588887
O       -1.40985000       0.90536500       0.07205180      -0.04179463       0.02534440       0.02223665
H       -1.44759000      -0.05387240      -0.29767900       0.00778722      -0.04528293       0.00644754
H       -0.39260200       1.14610000      -0.12325200       0.05360443       0.00029272       0.01345536
O       -0.05942890      -1.14006000      -1.13994000       0.02818484       0.08688013       0.00485000
H        0.41105900      -2.00865000      -0.93460500       0.01405599      -0.03687313       0.01442197
H        0.54718300      -0.43747200      -1.10648000      -0.03572181      -0.02718618       0.01008582
12
Properties=species:S:1:pos:R:3:gradient_b3lyp_habohr:R:3 energy_b3lyp_ha=-305.6559869442653 label=14 basis=ccpvtz xc=b3lyp pbc="F F F"
O       -1.30219000      -1.85263000       0.51515900       0.05583968      -0.06223047      -0.05753260
H       -0.62866000      -2.23655000       0.98131300      -0.04949285       0.02649598      -0.04292039
H       -1.20202000      -2.18973000      -0.29365100      -0.00683473       0.03669598       0.10082176
O        1.02276000       1.03423000       1.71772000      -0.01534354      -0.07812250       0.00140367
H        1.09191000       1.66946000       0.93966400       0.00803497       0.03037082      -0.02901184
H        0.94816400       0.18873800       1.37917000       0.00879493       0.04773653       0.02705380
O       -1.23634000       1.41877000      -0.41601000      -0.10064827       0.05159039       0.01934512
H       -2.04986000       1.50167000      -0.74526100       0.11342179      -0.02968307       0.02179478
H       -1.01811000       0.73779900      -1.15039000      -0.01473818      -0.02223134      -0.04046903
O        1.48341000      -0.44119900      -1.67928000       0.08433528       0.01055052       0.05317139
H        1.68452000       0.44574500      -1.77814000      -0.01916070      -0.04753745      -0.00008769
H        2.05906000      -0.88184400      -1.16612000      -0.06420933       0.03636474      -0.05356916
12
Properties=species:S:1:pos:R:3:gradient_b3lyp_habohr:R:3 energy_b3lyp_ha=-305.62861239577575 label=15 basis=ccpvtz xc=b3lyp pbc="F F F"
O       -0.36524500       1.59592000      -0.40816000      -0.01322087      -0.09798089      -0.03280485
H        0.34714700       2.08541000       0.21713100       0.04453880       0.05388494       0.04991530
H       -0.43640700       0.67870000      -0.59933400      -0.01113323       0.02782594      -0.00311405
O       -0.32621400      -1.46732000      -1.08971000      -0.02226043      -0.00137258      -0.01947285
H        0.42415800      -1.32853000      -0.43085300       0.02603070       0.01246507       0.02127999
H       -0.95123800      -2.03453000      -0.60950500      -0.00629020      -0.00709220       0.00316705
O        1.72921000       0.19536400       0.11584800      -0.07119745       0.02053924      -0.11615688
H        1.33464000       0.25271500      -0.64596800       0.03795875      -0.01109224       0.15204115
H        0.92097300       0.37168600       0.56296100       0.00671842       0.00136081      -0.04085559
O       -1.03950000      -0.34743300       1.35944000       0.09945497       0.05487655       0.00919343
H       -2.04117000      -0.14251000       1.04248000      -0.05396870       0.03721591      -0.01946359
H       -0.91500600       0.53799200       1.29723000      -0.03663104      -0.09063072      -0.00372946
12
Properties=species:S:1:pos:R:3:gradient_b3lyp_habohr:R:3 energy_b3lyp_ha=-305.59994058869955 label=16 basis=ccpvtz xc=b3lyp pbc="F F F"
O        0.52686200       0.13387100      -1.44897000      -0.18126185       0.13725123      -0.00831272
H        1.27422000       0.33450800      -0.79781500       0.04063889      -0.00157651       0.04454891
H       -0.08197380       0.69465600      -1.58584000       0.12279470      -0.13609481       0.02098177
O       -1.52199000      -0.40047400      -0.06648310       0.02591195      -0.00785988      -0.00428733
H       -1.23938000      -0.30074900       0.85833700       0.02768035       0.02406827       0.00442818
H       -1.87903000      -1.25040000      -0.29615700       0.00420303       0.01120386      -0.00751842
O        0.04649180       1.32611000       0.79986000       0.00288272      -0.01382422      -0.01022526
H        0.83937700       0.82051800       0.54335700       0.00699551      -0.01722854      -0.01823884
H       -0.60575400       0.80604000       0.29708700      -0.01130760      -0.03381890       0.00616800
O        0.99415900      -0.94474700       0.68478700       0.04067296       0.02271523      -0.02845638
H        0.51309900      -1.30014000      -0.13718200      -0.01737562      -0.01878533      -0.03597045
H        0.23497300      -0.54274000       1.31048000      -0.06183636       0.03395013       0.03688308
12
Properties=species:S:1:pos:R:3:gradient_b3lyp_habohr:R:3 energy_b3lyp_ha=-305.6879186102068 label=17 basis=ccpvtz xc=b3lyp pbc="F F F"
O        0.72133200      -1.59937000       0.41228200      -0.08885645       0.04198501      -0.02245636
H        0.94745900      -1.99371000      -0.42167800      -0.02149932       0.01186736       0.00859507
H       -0.06636640      -1.28068000       0.17299100       0.11362341      -0.03973592       0.00825686
O        0.10140500       0.95859500      -1.38038000      -0.01382881       0.00869831       0.02870322
H        0.68882900       1.33087000      -0.66289700       0.01076063       0.01728088       0.00617687
H        0.64244600       0.40124400      -1.99032000       0.00786215      -0.02000868      -0.01512600
O       -1.76072000      -0.35952600       0.08249380      -0.02367392       0.05780388       0.03901084
H       -2.03521000       0.39958800       0.51894800       0.00864175      -0.04379750      -0.01625188
H       -1.11014000      -0.13491900      -0.64741000       0.02297646      -0.02022947      -0.01947670
O        0.91937900       0.94320100       0.96760700      -0.00484255       0.02129607      -0.01797645
H        0.98215100      -0.12608800       0.87445000       0.00946643      -0.05923122      -0.01337691
H        0.19307600       1.29987000       1.53979000      -0.02062981       0.02407154       0.01392118
12
Properties=species:S:1:pos:R:3:gradient_b3lyp_habohr:R:3 energy_b3lyp_ha=-305.5404866657834 label=18 basis=ccpvtz xc=b3lyp pbc="F F F"
O        1.08178000      -0.83025300       0.80793500      -0.04210836       0.03688268      -0.09118283
H        0.15308600      -1.00202000       1.05052000      -0.12781990       0.06500370      -0.02906112
H        1.09825000      -0.47418000      -0.01913650      -0.01121530      -0.02862467       0.06336155
O       -0.21632100       1.56822000       0.64260700      -0.01932130       0.07006312      -0.03539509
H       -0.96784200       0.97335500       1.06082000      -0.02876589      -0.04720911       0.01830329
H        0.57696800       0.86806100       0.87891700       0.04292281      -0.06152461       0.00721555
O        0.50052300      -0.06987660      -1.92519000      -0.00285679       0.03190115      -0.05770460
H        0.26274400       0.69897500      -1.36133000      -0.00444777      -0.00215110       0.01479694
H        0.59144200      -0.80692200      -1.18647000       0.01147384      -0.02919864       0.06902883
O       -1.39330000      -0.66806100       0.42426000      -0.00177393      -0.03442124       0.04862421
H       -0.94984500       0.00557922      -0.27946700       0.05060350       0.03840668      -0.02603041
H       -0.52961800      -0.69636200       0.85588700       0.13330983      -0.03912783       0.01804347
12
Properties=species:S:1:pos:R:3:gradient_b3lyp_habohr:R:3 energy_b3lyp_ha=-305.66397390142674 label=19 basis=ccpvtz xc=b3lyp pbc="F F F"
O        1.01629000       0.84353600      -0.18060200       0.05524303       0.05847714       0.02780495
H        0.43026600       0.05397430       0.29407000      -0.01948246      -0.04602857      -0.00655664
H        1.53806000       1.36304000       0.36583800      -0.02402363      -0.02232984      -0.03965729
O       -1.62072000       1.25678000      -0.52496700       0.04384529      -0.00773281       0.03858091
H       -0.64337100       1.09088000      -0.43395700       0.01810958      -0.01734258       0.03243852
H       -2.10142000       1.37483000      -1.46387000      -0.05245300       0.01171547      -0.06170185
O        1.40827000      -1.69052000      -0.46237200      -0.02161180      -0.03425321       0.02550951
H        1.45241000      -0.63942200      -0.48694600      -0.01218538       0.06118500       0.00946842
H        1.96316000      -1.97097000      -1.23803000       0.01687369      -0.00809620      -0.02262871
O       -0.82550400      -0.48244100       1.19570000      -0.01411218      -0.01191467      -0.04927937
H       -0.55120300      -0.15484900       2.15177000       0.02841506       0.01570578       0.05920686
H       -1.62447000      -0.01299280       0.82156500      -0.01861741       0.00061301      -0.01318585
12
Properties=species:S:1:pos:R:3:gradient_b3lyp_habohr:R:3 energy_b3lyp_ha=-305.6287934325798 label=20 basis=ccpvtz xc=b3lyp pbc="F F F"
O       -1.92142000       1.26436000      -2.08826000      -0.03786900      -0.00095173      -0.05662787
H       -1.49408000       1.94396000      -2.55605000       0.00243469      -0.03206040       0.05726965
H       -1.21217000       1.49246000      -1.39293000       0.03574364       0.03286736      -0.00001012
O        0.74715200       1.39286000       1.87222000       0.01381731       0.00453226       0.00843687
H        1.66498000       1.48879000       1.67191000      -0.02353655      -0.00795434      -0.00115161
H        0.41284600       1.03890000       1.03554000       0.00652544      -0.01574957      -0.00383658
O        0.14718500      -1.18332000       1.28050000       0.01402984       0.03706938      -0.03693997
H       -0.07509420      -0.81762800       0.46620800       0.04141728      -0.00160506       0.05792868
H        0.67509400      -0.44363100       1.44806000      -0.03947984      -0.02610621      -0.04935417
O        0.86544900      -1.55962000      -1.02830000      -0.10293867      -0.09472038      -0.07935596
H        0.33904000      -2.20767000      -1.19780000       0.10560383       0.12284567       0.05828922
H        0.92636500      -1.82170000      -0.01499170      -0.01574631      -0.01816793       0.04535234
12
Properties=species:S:1:pos:R:3:gradient_b3lyp_habohr:R:3 energy_b3lyp_ha=-305.64477558353474 label=21 basis=ccpvtz xc=b3lyp pbc="F F F"
O        1.44294000       0.69453400      -0.59543100      -0.03762592       0.05534579      -0.02321400
H        1.28077000      -0.24627000      -0.14384300      -0.00252441      -0.05080993       0.05180134
H        0.68500700       1.20996000      -0.82805300       0.01996601       0.00004819       0.00098730
O       -0.06413180      -1.80834000       0.03944370      -0.05811838       0.00467090      -0.05438162