2
Lattice="0.0 1.8351186 1.8351186 1.8351186 0.0 1.8351186 1.8351186 1.8351186 0.0" Properties=species:S:1:pos:R:3 energy_ha=-10.898630962890481 label=diamond basis=gth-szv xc=lda pbc="T T T"
C        0.00000000       0.00000000       0.00000000
C        0.91755893       0.91755893       0.91755893
6
Lattice="2.55104041 0.0 0.0 0.0 6.73790328 0.0 0.0 0.0 2.5479222" Properties=species:S:1:pos:R:3 energy_ha=-32.193796338364166 label=A1+ basis=gth-szv xc=lda pbc="T T T"
C        0.20299438       1.68447582       1.83715163
C        0.00000000       2.42685047       0.57583762
C       -1.08458132       3.36895164       0.50209730
C       -0.20299438       5.05342746       1.83715163
C        0.00000000       5.79580211       0.57583762
C        1.08458132       6.73790328       0.50209730
6
Lattice="2.55104041 0.0 0.0 0.0 6.73790328 0.0 0.0 0.0 2.5479222" Properties=species:S:1:pos:R:3 energy_ha=-32.155371142336136 label=A1- basis=gth-szv xc=lda pbc="T T T"
C       -0.20299438       1.68447582       1.83715163
C        0.00000000       2.42685047       0.57583762
C       -1.08458132       3.36895164       0.50209730
C        0.20299438       5.05342746       1.83715163
C        0.00000000       5.79580211       0.57583762
C        1.08458132       6.73790328       0.50209730
6
Lattice="2.84181643 0.0 0.0 0.0 5.11552396 0.0 0.0 0.0 3.44358239" Properties=species:S:1:pos:R:3 energy_ha=-32.189401721028446 label=A2+ basis=gth-szv xc=lda pbc="T T T"
C       -0.35883251       0.51493562      -0.00001227
C        0.00000000      -0.46858526       1.12367101
C        0.38152289       1.79381661       2.40874519
C        0.35883251       3.07269760      -0.00001227
C        0.00000000       2.08917672       1.12367101
C       -0.38152289       4.35157859       2.40874519
6
Lattice="2.84181643 0.0 0.0 0.0 5.11552396 0.0 0.0 0.0 3.44358239" Properties=species:S:1:pos:R:3 energy_ha=-32.15814840001236 label=A2- basis=gth-szv xc=lda pbc="T T T"
C        0.35883251       0.51493562      -0.00001227
C        0.00000000      -0.46858526       1.12367101
C        0.38152289       1.79381661       2.40874519
C       -0.35883251       3.07269760      -0.00001227
C        0.00000000       2.08917672       1.12367101
C       -0.38152289       4.35157859       2.40874519
